666-BAs.lmptrj (written by ASE) 

1728 	 atoms 
2  atom types
0.0      28.673997879000002  xlo xhi
0.0      28.673997879000002  ylo yhi
0.0      28.673997879000002  zlo zhi


Atoms 

     1   1                       0                       0                       0
     2   1                       0                       0      4.7789993693180204
     3   1                       0                       0      9.5579987099620443
     4   1                       0                       0      14.336998079280065
     5   1                       0                       0      19.115997448598087
     6   1                       0                       0      23.894995957696171
     7   1                       0      4.7789993693180204                       0
     8   1                       0      4.7789993693180204      4.7789993693180204
     9   1                       0      4.7789993693180204      9.5579987099620443
    10   1                       0      4.7789993693180204      14.336998079280065
    11   1                       0      4.7789993693180204      19.115997448598087
    12   1                       0      4.7789993693180204      23.894995957696171
    13   1                       0      9.5579987099620443                       0
    14   1                       0      9.5579987099620443      4.7789993693180204
    15   1                       0      9.5579987099620443      9.5579987099620443
    16   1                       0      9.5579987099620443      14.336998079280065
    17   1                       0      9.5579987099620443      19.115997448598087
    18   1                       0      9.5579987099620443      23.894995957696171
    19   1                       0      14.336998079280065                       0
    20   1                       0      14.336998079280065      4.7789993693180204
    21   1                       0      14.336998079280065      9.5579987099620443
    22   1                       0      14.336998079280065      14.336998079280065
    23   1                       0      14.336998079280065      19.115997448598087
    24   1                       0      14.336998079280065      23.894995957696171
    25   1                       0      19.115997448598087                       0
    26   1                       0      19.115997448598087      4.7789993693180204
    27   1                       0      19.115997448598087      9.5579987099620443
    28   1                       0      19.115997448598087      14.336998079280065
    29   1                       0      19.115997448598087      19.115997448598087
    30   1                       0      19.115997448598087      23.894995957696171
    31   1                       0      23.894995957696171                       0
    32   1                       0      23.894995957696171      4.7789993693180204
    33   1                       0      23.894995957696171      9.5579987099620443
    34   1                       0      23.894995957696171      14.336998079280065
    35   1                       0      23.894995957696171      19.115997448598087
    36   1                       0      23.894995957696171      23.894995957696171
    37   1      4.7789993693180204                       0                       0
    38   1      4.7789993693180204                       0      4.7789993693180204
    39   1      4.7789993693180204                       0      9.5579987099620443
    40   1      4.7789993693180204                       0      14.336998079280065
    41   1      4.7789993693180204                       0      19.115997448598087
    42   1      4.7789993693180204                       0      23.894995957696171
    43   1      4.7789993693180204      4.7789993693180204                       0
    44   1      4.7789993693180204      4.7789993693180204      4.7789993693180204
    45   1      4.7789993693180204      4.7789993693180204      9.5579987099620443
    46   1      4.7789993693180204      4.7789993693180204      14.336998079280065
    47   1      4.7789993693180204      4.7789993693180204      19.115997448598087
    48   1      4.7789993693180204      4.7789993693180204      23.894995957696171
    49   1      4.7789993693180204      9.5579987099620443                       0
    50   1      4.7789993693180204      9.5579987099620443      4.7789993693180204
    51   1      4.7789993693180204      9.5579987099620443      9.5579987099620443
    52   1      4.7789993693180204      9.5579987099620443      14.336998079280065
    53   1      4.7789993693180204      9.5579987099620443      19.115997448598087
    54   1      4.7789993693180204      9.5579987099620443      23.894995957696171
    55   1      4.7789993693180204      14.336998079280065                       0
    56   1      4.7789993693180204      14.336998079280065      4.7789993693180204
    57   1      4.7789993693180204      14.336998079280065      9.5579987099620443
    58   1      4.7789993693180204      14.336998079280065      14.336998079280065
    59   1      4.7789993693180204      14.336998079280065      19.115997448598087
    60   1      4.7789993693180204      14.336998079280065      23.894995957696171
    61   1      4.7789993693180204      19.115997448598087                       0
    62   1      4.7789993693180204      19.115997448598087      4.7789993693180204
    63   1      4.7789993693180204      19.115997448598087      9.5579987099620443
    64   1      4.7789993693180204      19.115997448598087      14.336998079280065
    65   1      4.7789993693180204      19.115997448598087      19.115997448598087
    66   1      4.7789993693180204      19.115997448598087      23.894995957696171
    67   1      4.7789993693180204      23.894995957696171                       0
    68   1      4.7789993693180204      23.894995957696171      4.7789993693180204
    69   1      4.7789993693180204      23.894995957696171      9.5579987099620443
    70   1      4.7789993693180204      23.894995957696171      14.336998079280065
    71   1      4.7789993693180204      23.894995957696171      19.115997448598087
    72   1      4.7789993693180204      23.894995957696171      23.894995957696171
    73   1      9.5579987099620443                       0                       0
    74   1      9.5579987099620443                       0      4.7789993693180204
    75   1      9.5579987099620443                       0      9.5579987099620443
    76   1      9.5579987099620443                       0      14.336998079280065
    77   1      9.5579987099620443                       0      19.115997448598087
    78   1      9.5579987099620443                       0      23.894995957696171
    79   1      9.5579987099620443      4.7789993693180204                       0
    80   1      9.5579987099620443      4.7789993693180204      4.7789993693180204
    81   1      9.5579987099620443      4.7789993693180204      9.5579987099620443
    82   1      9.5579987099620443      4.7789993693180204      14.336998079280065
    83   1      9.5579987099620443      4.7789993693180204      19.115997448598087
    84   1      9.5579987099620443      4.7789993693180204      23.894995957696171
    85   1      9.5579987099620443      9.5579987099620443                       0
    86   1      9.5579987099620443      9.5579987099620443      4.7789993693180204
    87   1      9.5579987099620443      9.5579987099620443      9.5579987099620443
    88   1      9.5579987099620443      9.5579987099620443      14.336998079280065
    89   1      9.5579987099620443      9.5579987099620443      19.115997448598087
    90   1      9.5579987099620443      9.5579987099620443      23.894995957696171
    91   1      9.5579987099620443      14.336998079280065                       0
    92   1      9.5579987099620443      14.336998079280065      4.7789993693180204
    93   1      9.5579987099620443      14.336998079280065      9.5579987099620443
    94   1      9.5579987099620443      14.336998079280065      14.336998079280065
    95   1      9.5579987099620443      14.336998079280065      19.115997448598087
    96   1      9.5579987099620443      14.336998079280065      23.894995957696171
    97   1      9.5579987099620443      19.115997448598087                       0
    98   1      9.5579987099620443      19.115997448598087      4.7789993693180204
    99   1      9.5579987099620443      19.115997448598087      9.5579987099620443
   100   1      9.5579987099620443      19.115997448598087      14.336998079280065
   101   1      9.5579987099620443      19.115997448598087      19.115997448598087
   102   1      9.5579987099620443      19.115997448598087      23.894995957696171
   103   1      9.5579987099620443      23.894995957696171                       0
   104   1      9.5579987099620443      23.894995957696171      4.7789993693180204
   105   1      9.5579987099620443      23.894995957696171      9.5579987099620443
   106   1      9.5579987099620443      23.894995957696171      14.336998079280065
   107   1      9.5579987099620443      23.894995957696171      19.115997448598087
   108   1      9.5579987099620443      23.894995957696171      23.894995957696171
   109   1      14.336998079280065                       0                       0
   110   1      14.336998079280065                       0      4.7789993693180204
   111   1      14.336998079280065                       0      9.5579987099620443
   112   1      14.336998079280065                       0      14.336998079280065
   113   1      14.336998079280065                       0      19.115997448598087
   114   1      14.336998079280065                       0      23.894995957696171
   115   1      14.336998079280065      4.7789993693180204                       0
   116   1      14.336998079280065      4.7789993693180204      4.7789993693180204
   117   1      14.336998079280065      4.7789993693180204      9.5579987099620443
   118   1      14.336998079280065      4.7789993693180204      14.336998079280065
   119   1      14.336998079280065      4.7789993693180204      19.115997448598087
   120   1      14.336998079280065      4.7789993693180204      23.894995957696171
   121   1      14.336998079280065      9.5579987099620443                       0
   122   1      14.336998079280065      9.5579987099620443      4.7789993693180204
   123   1      14.336998079280065      9.5579987099620443      9.5579987099620443
   124   1      14.336998079280065      9.5579987099620443      14.336998079280065
   125   1      14.336998079280065      9.5579987099620443      19.115997448598087
   126   1      14.336998079280065      9.5579987099620443      23.894995957696171
   127   1      14.336998079280065      14.336998079280065                       0
   128   1      14.336998079280065      14.336998079280065      4.7789993693180204
   129   1      14.336998079280065      14.336998079280065      9.5579987099620443
   130   1      14.336998079280065      14.336998079280065      14.336998079280065
   131   1      14.336998079280065      14.336998079280065      19.115997448598087
   132   1      14.336998079280065      14.336998079280065      23.894995957696171
   133   1      14.336998079280065      19.115997448598087                       0
   134   1      14.336998079280065      19.115997448598087      4.7789993693180204
   135   1      14.336998079280065      19.115997448598087      9.5579987099620443
   136   1      14.336998079280065      19.115997448598087      14.336998079280065
   137   1      14.336998079280065      19.115997448598087      19.115997448598087
   138   1      14.336998079280065      19.115997448598087      23.894995957696171
   139   1      14.336998079280065      23.894995957696171                       0
   140   1      14.336998079280065      23.894995957696171      4.7789993693180204
   141   1      14.336998079280065      23.894995957696171      9.5579987099620443
   142   1      14.336998079280065      23.894995957696171      14.336998079280065
   143   1      14.336998079280065      23.894995957696171      19.115997448598087
   144   1      14.336998079280065      23.894995957696171      23.894995957696171
   145   1      19.115997448598087                       0                       0
   146   1      19.115997448598087                       0      4.7789993693180204
   147   1      19.115997448598087                       0      9.5579987099620443
   148   1      19.115997448598087                       0      14.336998079280065
   149   1      19.115997448598087                       0      19.115997448598087
   150   1      19.115997448598087                       0      23.894995957696171
   151   1      19.115997448598087      4.7789993693180204                       0
   152   1      19.115997448598087      4.7789993693180204      4.7789993693180204
   153   1      19.115997448598087      4.7789993693180204      9.5579987099620443
   154   1      19.115997448598087      4.7789993693180204      14.336998079280065
   155   1      19.115997448598087      4.7789993693180204      19.115997448598087
   156   1      19.115997448598087      4.7789993693180204      23.894995957696171
   157   1      19.115997448598087      9.5579987099620443                       0
   158   1      19.115997448598087      9.5579987099620443      4.7789993693180204
   159   1      19.115997448598087      9.5579987099620443      9.5579987099620443
   160   1      19.115997448598087      9.5579987099620443      14.336998079280065
   161   1      19.115997448598087      9.5579987099620443      19.115997448598087
   162   1      19.115997448598087      9.5579987099620443      23.894995957696171
   163   1      19.115997448598087      14.336998079280065                       0
   164   1      19.115997448598087      14.336998079280065      4.7789993693180204
   165   1      19.115997448598087      14.336998079280065      9.5579987099620443
   166   1      19.115997448598087      14.336998079280065      14.336998079280065
   167   1      19.115997448598087      14.336998079280065      19.115997448598087
   168   1      19.115997448598087      14.336998079280065      23.894995957696171
   169   1      19.115997448598087      19.115997448598087                       0
   170   1      19.115997448598087      19.115997448598087      4.7789993693180204
   171   1      19.115997448598087      19.115997448598087      9.5579987099620443
   172   1      19.115997448598087      19.115997448598087      14.336998079280065
   173   1      19.115997448598087      19.115997448598087      19.115997448598087
   174   1      19.115997448598087      19.115997448598087      23.894995957696171
   175   1      19.115997448598087      23.894995957696171                       0
   176   1      19.115997448598087      23.894995957696171      4.7789993693180204
   177   1      19.115997448598087      23.894995957696171      9.5579987099620443
   178   1      19.115997448598087      23.894995957696171      14.336998079280065
   179   1      19.115997448598087      23.894995957696171      19.115997448598087
   180   1      19.115997448598087      23.894995957696171      23.894995957696171
   181   1      23.894995957696171                       0                       0
   182   1      23.894995957696171                       0      4.7789993693180204
   183   1      23.894995957696171                       0      9.5579987099620443
   184   1      23.894995957696171                       0      14.336998079280065
   185   1      23.894995957696171                       0      19.115997448598087
   186   1      23.894995957696171                       0      23.894995957696171
   187   1      23.894995957696171      4.7789993693180204                       0
   188   1      23.894995957696171      4.7789993693180204      4.7789993693180204
   189   1      23.894995957696171      4.7789993693180204      9.5579987099620443
   190   1      23.894995957696171      4.7789993693180204      14.336998079280065
   191   1      23.894995957696171      4.7789993693180204      19.115997448598087
   192   1      23.894995957696171      4.7789993693180204      23.894995957696171
   193   1      23.894995957696171      9.5579987099620443                       0
   194   1      23.894995957696171      9.5579987099620443      4.7789993693180204
   195   1      23.894995957696171      9.5579987099620443      9.5579987099620443
   196   1      23.894995957696171      9.5579987099620443      14.336998079280065
   197   1      23.894995957696171      9.5579987099620443      19.115997448598087
   198   1      23.894995957696171      9.5579987099620443      23.894995957696171
   199   1      23.894995957696171      14.336998079280065                       0
   200   1      23.894995957696171      14.336998079280065      4.7789993693180204
   201   1      23.894995957696171      14.336998079280065      9.5579987099620443
   202   1      23.894995957696171      14.336998079280065      14.336998079280065
   203   1      23.894995957696171      14.336998079280065      19.115997448598087
   204   1      23.894995957696171      14.336998079280065      23.894995957696171
   205   1      23.894995957696171      19.115997448598087                       0
   206   1      23.894995957696171      19.115997448598087      4.7789993693180204
   207   1      23.894995957696171      19.115997448598087      9.5579987099620443
   208   1      23.894995957696171      19.115997448598087      14.336998079280065
   209   1      23.894995957696171      19.115997448598087      19.115997448598087
   210   1      23.894995957696171      19.115997448598087      23.894995957696171
   211   1      23.894995957696171      23.894995957696171                       0
   212   1      23.894995957696171      23.894995957696171      4.7789993693180204
   213   1      23.894995957696171      23.894995957696171      9.5579987099620443
   214   1      23.894995957696171      23.894995957696171      14.336998079280065
   215   1      23.894995957696171      23.894995957696171      19.115997448598087
   216   1      23.894995957696171      23.894995957696171      23.894995957696171
   217   1      2.3894996703220115      2.3894996703220115                       0
   218   1      2.3894996703220115      2.3894996703220115      4.7789993693180204
   219   1      2.3894996703220115      2.3894996703220115      9.5579987099620443
   220   1      2.3894996703220115      2.3894996703220115      14.336998079280065
   221   1      2.3894996703220115      2.3894996703220115      19.115997448598087
   222   1      2.3894996703220115      2.3894996703220115      23.894995957696171
   223   1      2.3894996703220115      7.1684990396400323                       0
   224   1      2.3894996703220115      7.1684990396400323      4.7789993693180204
   225   1      2.3894996703220115      7.1684990396400323      9.5579987099620443
   226   1      2.3894996703220115      7.1684990396400323      14.336998079280065
   227   1      2.3894996703220115      7.1684990396400323      19.115997448598087
   228   1      2.3894996703220115      7.1684990396400323      23.894995957696171
   229   1      2.3894996703220115      11.947497978848086                       0
   230   1      2.3894996703220115      11.947497978848086      4.7789993693180204
   231   1      2.3894996703220115      11.947497978848086      9.5579987099620443
   232   1      2.3894996703220115      11.947497978848086      14.336998079280065
   233   1      2.3894996703220115      11.947497978848086      19.115997448598087
   234   1      2.3894996703220115      11.947497978848086      23.894995957696171
   235   1      2.3894996703220115      16.726496487946171                       0
   236   1      2.3894996703220115      16.726496487946171      4.7789993693180204
   237   1      2.3894996703220115      16.726496487946171      9.5579987099620443
   238   1      2.3894996703220115      16.726496487946171      14.336998079280065
   239   1      2.3894996703220115      16.726496487946171      19.115997448598087
   240   1      2.3894996703220115      16.726496487946171      23.894995957696171
   241   1      2.3894996703220115       21.50549668881013                       0
   242   1      2.3894996703220115       21.50549668881013      4.7789993693180204
   243   1      2.3894996703220115       21.50549668881013      9.5579987099620443
   244   1      2.3894996703220115       21.50549668881013      14.336998079280065
   245   1      2.3894996703220115       21.50549668881013      19.115997448598087
   246   1      2.3894996703220115       21.50549668881013      23.894995957696171
   247   1      2.3894996703220115      26.284496918348086                       0
   248   1      2.3894996703220115      26.284496918348086      4.7789993693180204
   249   1      2.3894996703220115      26.284496918348086      9.5579987099620443
   250   1      2.3894996703220115      26.284496918348086      14.336998079280065
   251   1      2.3894996703220115      26.284496918348086      19.115997448598087
   252   1      2.3894996703220115      26.284496918348086      23.894995957696171
   253   1      7.1684990396400323      2.3894996703220115                       0
   254   1      7.1684990396400323      2.3894996703220115      4.7789993693180204
   255   1      7.1684990396400323      2.3894996703220115      9.5579987099620443
   256   1      7.1684990396400323      2.3894996703220115      14.336998079280065
   257   1      7.1684990396400323      2.3894996703220115      19.115997448598087
   258   1      7.1684990396400323      2.3894996703220115      23.894995957696171
   259   1      7.1684990396400323      7.1684990396400323                       0
   260   1      7.1684990396400323      7.1684990396400323      4.7789993693180204
   261   1      7.1684990396400323      7.1684990396400323      9.5579987099620443
   262   1      7.1684990396400323      7.1684990396400323      14.336998079280065
   263   1      7.1684990396400323      7.1684990396400323      19.115997448598087
   264   1      7.1684990396400323      7.1684990396400323      23.894995957696171
   265   1      7.1684990396400323      11.947497978848086                       0
   266   1      7.1684990396400323      11.947497978848086      4.7789993693180204
   267   1      7.1684990396400323      11.947497978848086      9.5579987099620443
   268   1      7.1684990396400323      11.947497978848086      14.336998079280065
   269   1      7.1684990396400323      11.947497978848086      19.115997448598087
   270   1      7.1684990396400323      11.947497978848086      23.894995957696171
   271   1      7.1684990396400323      16.726496487946171                       0
   272   1      7.1684990396400323      16.726496487946171      4.7789993693180204
   273   1      7.1684990396400323      16.726496487946171      9.5579987099620443
   274   1      7.1684990396400323      16.726496487946171      14.336998079280065
   275   1      7.1684990396400323      16.726496487946171      19.115997448598087
   276   1      7.1684990396400323      16.726496487946171      23.894995957696171
   277   1      7.1684990396400323       21.50549668881013                       0
   278   1      7.1684990396400323       21.50549668881013      4.7789993693180204
   279   1      7.1684990396400323       21.50549668881013      9.5579987099620443
   280   1      7.1684990396400323       21.50549668881013      14.336998079280065
   281   1      7.1684990396400323       21.50549668881013      19.115997448598087
   282   1      7.1684990396400323       21.50549668881013      23.894995957696171
   283   1      7.1684990396400323      26.284496918348086                       0
   284   1      7.1684990396400323      26.284496918348086      4.7789993693180204
   285   1      7.1684990396400323      26.284496918348086      9.5579987099620443
   286   1      7.1684990396400323      26.284496918348086      14.336998079280065
   287   1      7.1684990396400323      26.284496918348086      19.115997448598087
   288   1      7.1684990396400323      26.284496918348086      23.894995957696171
   289   1      11.947497978848086      2.3894996703220115                       0
   290   1      11.947497978848086      2.3894996703220115      4.7789993693180204
   291   1      11.947497978848086      2.3894996703220115      9.5579987099620443
   292   1      11.947497978848086      2.3894996703220115      14.336998079280065
   293   1      11.947497978848086      2.3894996703220115      19.115997448598087
   294   1      11.947497978848086      2.3894996703220115      23.894995957696171
   295   1      11.947497978848086      7.1684990396400323                       0
   296   1      11.947497978848086      7.1684990396400323      4.7789993693180204
   297   1      11.947497978848086      7.1684990396400323      9.5579987099620443
   298   1      11.947497978848086      7.1684990396400323      14.336998079280065
   299   1      11.947497978848086      7.1684990396400323      19.115997448598087
   300   1      11.947497978848086      7.1684990396400323      23.894995957696171
   301   1      11.947497978848086      11.947497978848086                       0
   302   1      11.947497978848086      11.947497978848086      4.7789993693180204
   303   1      11.947497978848086      11.947497978848086      9.5579987099620443
   304   1      11.947497978848086      11.947497978848086      14.336998079280065
   305   1      11.947497978848086      11.947497978848086      19.115997448598087
   306   1      11.947497978848086      11.947497978848086      23.894995957696171
   307   1      11.947497978848086      16.726496487946171                       0
   308   1      11.947497978848086      16.726496487946171      4.7789993693180204
   309   1      11.947497978848086      16.726496487946171      9.5579987099620443
   310   1      11.947497978848086      16.726496487946171      14.336998079280065
   311   1      11.947497978848086      16.726496487946171      19.115997448598087
   312   1      11.947497978848086      16.726496487946171      23.894995957696171
   313   1      11.947497978848086       21.50549668881013                       0
   314   1      11.947497978848086       21.50549668881013      4.7789993693180204
   315   1      11.947497978848086       21.50549668881013      9.5579987099620443
   316   1      11.947497978848086       21.50549668881013      14.336998079280065
   317   1      11.947497978848086       21.50549668881013      19.115997448598087
   318   1      11.947497978848086       21.50549668881013      23.894995957696171
   319   1      11.947497978848086      26.284496918348086                       0
   320   1      11.947497978848086      26.284496918348086      4.7789993693180204
   321   1      11.947497978848086      26.284496918348086      9.5579987099620443
   322   1      11.947497978848086      26.284496918348086      14.336998079280065
   323   1      11.947497978848086      26.284496918348086      19.115997448598087
   324   1      11.947497978848086      26.284496918348086      23.894995957696171
   325   1      16.726496487946171      2.3894996703220115                       0
   326   1      16.726496487946171      2.3894996703220115      4.7789993693180204
   327   1      16.726496487946171      2.3894996703220115      9.5579987099620443
   328   1      16.726496487946171      2.3894996703220115      14.336998079280065
   329   1      16.726496487946171      2.3894996703220115      19.115997448598087
   330   1      16.726496487946171      2.3894996703220115      23.894995957696171
   331   1      16.726496487946171      7.1684990396400323                       0
   332   1      16.726496487946171      7.1684990396400323      4.7789993693180204
   333   1      16.726496487946171      7.1684990396400323      9.5579987099620443
   334   1      16.726496487946171      7.1684990396400323      14.336998079280065
   335   1      16.726496487946171      7.1684990396400323      19.115997448598087
   336   1      16.726496487946171      7.1684990396400323      23.894995957696171
   337   1      16.726496487946171      11.947497978848086                       0
   338   1      16.726496487946171      11.947497978848086      4.7789993693180204
   339   1      16.726496487946171      11.947497978848086      9.5579987099620443
   340   1      16.726496487946171      11.947497978848086      14.336998079280065
   341   1      16.726496487946171      11.947497978848086      19.115997448598087
   342   1      16.726496487946171      11.947497978848086      23.894995957696171
   343   1      16.726496487946171      16.726496487946171                       0
   344   1      16.726496487946171      16.726496487946171      4.7789993693180204
   345   1      16.726496487946171      16.726496487946171      9.5579987099620443
   346   1      16.726496487946171      16.726496487946171      14.336998079280065
   347   1      16.726496487946171      16.726496487946171      19.115997448598087
   348   1      16.726496487946171      16.726496487946171      23.894995957696171
   349   1      16.726496487946171       21.50549668881013                       0
   350   1      16.726496487946171       21.50549668881013      4.7789993693180204
   351   1      16.726496487946171       21.50549668881013      9.5579987099620443
   352   1      16.726496487946171       21.50549668881013      14.336998079280065
   353   1      16.726496487946171       21.50549668881013      19.115997448598087
   354   1      16.726496487946171       21.50549668881013      23.894995957696171
   355   1      16.726496487946171      26.284496918348086                       0
   356   1      16.726496487946171      26.284496918348086      4.7789993693180204
   357   1      16.726496487946171      26.284496918348086      9.5579987099620443
   358   1      16.726496487946171      26.284496918348086      14.336998079280065
   359   1      16.726496487946171      26.284496918348086      19.115997448598087