30x30-graphene.lmptrj (written by ASE) 

1800 	 atoms 
1  atom types
0.0      74.022003173800002  xlo xhi
0.0      64.104937651699998  ylo yhi
0.0                      15  zlo zhi
     37.010997318900003                       0                       0  xy xz yz


Atoms 

     1   1      1.2336999931374444     0.71227707789611805                     7.5
     2   1      2.4673999654524401      2.8491084397943474                     7.5
     3   1      3.7010999377674358      4.9859398016925773                     7.5
     4   1      4.9347997620384421      7.1227709071710557                     7.5
     5   1      6.1684998823974269      9.2596025254890364                     7.5
     6   1      7.4021997066684326      11.396433630967515                     7.5
     7   1      8.6358995309394402      13.533264736445993                     7.5
     8   1      9.8695993922214438       15.67009590602941                     7.5
     9   1       11.10329977165741      17.806927973081951                     7.5
    10   1      12.336999595928416      19.943759078560433                     7.5
    11   1       13.57069945721042      22.080590248143849                     7.5
    12   1      14.804399281481425      24.217421353622324                     7.5
    13   1      16.038099105752433      26.354252459100806                     7.5
    14   1      17.271798967034439      28.491083628684223                     7.5
    15   1      18.505498791305445      30.627914734162701                     7.5
    16   1      19.739199725906371      32.764747762789312                     7.5
    17   1      20.972898476858454      34.901577009224596                     7.5
    18   1      22.206599411459379      37.038410037851207                     7.5
    19   1      23.440298125400467      39.175239220181552                     7.5
    20   1      24.673999097012391      41.312072312913102                     7.5
    21   1      25.907697810953479      43.448901495243447                     7.5
    22   1      27.141398745554401      45.585734523870059                     7.5
    23   1      28.375097496506488      47.722563770305349                     7.5
    24   1      29.608798431107413      49.859396798931954                     7.5
    25   1      30.842497182059496      51.996226045367237                     7.5
    26   1      32.076198116660422      54.133059073993849                     7.5
    27   1       33.30989683060151      56.269888256324194                     7.5
    28   1      34.543597765202435      58.406721284950805                     7.5
    29   1      35.777296516154522      60.543550531386096                     7.5
    30   1      37.010997450755447        62.6803835600127                     7.5
    31   1      3.7011002223007829     0.71227707789611805                     7.5
    32   1      4.9348001946157787      2.8491084397943474                     7.5
    33   1      6.1685001669307749      4.9859398016925773                     7.5
    34   1      7.4021999912017815      7.1227709071710557                     7.5
    35   1      8.6359001115607654      9.2596025254890364                     7.5
    36   1      9.8695999358317721      11.396433630967515                     7.5
    37   1      11.103299760102779      13.533264736445993                     7.5
    38   1      12.336999621384782       15.67009590602941                     7.5
    39   1      13.570700000820748      17.806927973081951                     7.5
    40   1      14.804399825091755      19.943759078560433                     7.5
    41   1      16.038099686373759      22.080590248143849                     7.5
    42   1      17.271799510644765      24.217421353622324                     7.5
    43   1      18.505499334915772      26.354252459100806                     7.5
    44   1      19.739199196197777      28.491083628684223                     7.5
    45   1      20.972899020468784      30.627914734162701                     7.5
    46   1      22.206599955069709      32.764747762789312                     7.5
    47   1      23.440298706021792      34.901577009224596                     7.5
    48   1      24.673999640622718      37.038410037851207                     7.5
    49   1      25.907698354563806      39.175239220181552                     7.5
    50   1       27.14139932617573      41.312072312913102                     7.5
    51   1      28.375098040116818      43.448901495243447                     7.5
    52   1       29.60879897471774      45.585734523870059                     7.5
    53   1      30.842497725669826      47.722563770305349                     7.5
    54   1      32.076198660270748      49.859396798931954                     7.5
    55   1      33.309897411222835      51.996226045367237                     7.5
    56   1       34.54359834582376      54.133059073993849                     7.5
    57   1      35.777297059764848      56.269888256324194                     7.5
    58   1      37.010997994365773      58.406721284950805                     7.5
    59   1       38.24469674531786      60.543550531386096                     7.5
    60   1      39.478397679918785        62.6803835600127                     7.5
    61   1       6.168500451464122     0.71227707789611805                     7.5
    62   1      7.4022004237791172      2.8491084397943474                     7.5
    63   1      8.6359003960941134      4.9859398016925773                     7.5
    64   1      9.8696002203651201      7.1227709071710557                     7.5
    65   1      11.103300340724104      9.2596025254890364                     7.5
    66   1      12.337000164995111      11.396433630967515                     7.5
    67   1      13.570699989266117      13.533264736445993                     7.5
    68   1      14.804399850548123       15.67009590602941                     7.5
    69   1      16.038100229984089      17.806927973081951                     7.5
    70   1      17.271800054255095      19.943759078560433                     7.5
    71   1      18.505499915537097      22.080590248143849                     7.5
    72   1      19.739199739808104      24.217421353622324                     7.5
    73   1       20.97289956407911      26.354252459100806                     7.5
    74   1      22.206599425361116      28.491083628684223                     7.5
    75   1      23.440299249632123      30.627914734162701                     7.5
    76   1      24.674000184233048      32.764747762789312                     7.5
    77   1      25.907698935185131      34.901577009224596                     7.5
    78   1      27.141399869786056      37.038410037851207                     7.5
    79   1      28.375098583727144      39.175239220181552                     7.5
    80   1      29.608799555339068      41.312072312913102                     7.5
    81   1      30.842498269280156      43.448901495243447                     7.5
    82   1      32.076199203881075      45.585734523870059                     7.5
    83   1      33.309897954833161      47.722563770305349                     7.5
    84   1      34.543598889434087      49.859396798931954                     7.5
    85   1      35.777297640386173      51.996226045367237                     7.5
    86   1      37.010998574987099      54.133059073993849                     7.5
    87   1      38.244697288928187      56.269888256324194                     7.5
    88   1      39.478398223529112      58.406721284950805                     7.5
    89   1      40.712096974481199      60.543550531386096                     7.5
    90   1      41.945797909082124        62.6803835600127                     7.5
    91   1      8.6359003845394469     0.71227707789611805                     7.5
    92   1       9.869600356854443      2.8491084397943474                     7.5
    93   1      11.103300329169439      4.9859398016925773                     7.5
    94   1      12.337000153440446      7.1227709071710557                     7.5
    95   1       13.57070027379943      9.2596025254890364                     7.5
    96   1      14.804400098070435      11.396433630967515                     7.5
    97   1      16.038099922341441      13.533264736445993                     7.5
    98   1      17.271799783623447       15.67009590602941                     7.5
    99   1      18.505500163059413      17.806927973081951                     7.5
   100   1      19.739199987330419      19.943759078560433                     7.5
   101   1      20.972899848612421      22.080590248143849                     7.5
   102   1      22.206599672883428      24.217421353622324                     7.5
   103   1      23.440299497154435      26.354252459100806                     7.5
   104   1       24.67399935843644      28.491083628684223                     7.5
   105   1      25.907699182707447      30.627914734162701                     7.5
   106   1      27.141400117308372      32.764747762789312                     7.5
   107   1      28.375098868260455      34.901577009224596                     7.5
   108   1       29.60879980286138      37.038410037851207                     7.5
   109   1      30.842498516802468      39.175239220181552                     7.5
   110   1      32.076199488414389      41.312072312913102                     7.5
   111   1      33.309898202355484      43.448901495243447                     7.5
   112   1      34.543599136956402      45.585734523870059                     7.5
   113   1      35.777297887908489      47.722563770305349                     7.5
   114   1      37.010998822509414      49.859396798931954                     7.5
   115   1      38.244697573461494      51.996226045367237                     7.5
   116   1      39.478398508062426      54.133059073993849                     7.5
   117   1      40.712097222003507      56.269888256324194                     7.5
   118   1       41.94579815660444      58.406721284950805                     7.5
   119   1      43.179496907556526      60.543550531386096                     7.5
   120   1      44.413197842157444        62.6803835600127                     7.5
   121   1        11.1033009097908     0.71227707789611805                     7.5
   122   1      12.337000882105796      2.8491084397943474                     7.5
   123   1      13.570700854420792      4.9859398016925773                     7.5
   124   1      14.804400678691799      7.1227709071710557                     7.5
   125   1      16.038100799050781      9.2596025254890364                     7.5
   126   1      17.271800623321788      11.396433630967515                     7.5
   127   1      18.505500447592794      13.533264736445993                     7.5
   128   1        19.7392003088748       15.67009590602941                     7.5
   129   1      20.972900688310766      17.806927973081951                     7.5
   130   1      22.206600512581772      19.943759078560433                     7.5
   131   1      23.440300373863778      22.080590248143849                     7.5
   132   1      24.674000198134781      24.217421353622324                     7.5
   133   1      25.907700022405788      26.354252459100806                     7.5
   134   1      27.141399883687793      28.491083628684223                     7.5
   135   1        28.3750997079588      30.627914734162701                     7.5
   136   1      29.608800642559725      32.764747762789312                     7.5
   137   1      30.842499393511808      34.901577009224596                     7.5
   138   1      32.076200328112733      37.038410037851207                     7.5
   139   1      33.309899042053821      39.175239220181552                     7.5
   140   1      34.543600013665746      41.312072312913102                     7.5
   141   1      35.777298727606833      43.448901495243447                     7.5
   142   1      37.010999662207752      45.585734523870059                     7.5
   143   1      38.244698413159838      47.722563770305349                     7.5
   144   1      39.478399347760771      49.859396798931954                     7.5
   145   1       40.71209809871285      51.996226045367237                     7.5
   146   1      41.945799033313776      54.133059073993849                     7.5
   147   1      43.179497747254864      56.269888256324194                     7.5
   148   1      44.413198681855789      58.406721284950805                     7.5
   149   1      45.646897432807876      60.543550531386096                     7.5
   150   1      46.880598367408801        62.6803835600127                     7.5
   151   1      13.570700842866124     0.71227707789611805                     7.5
   152   1       14.80440081518112      2.8491084397943474                     7.5
   153   1      16.038100787496116      4.9859398016925773                     7.5
   154   1      17.271800611767123      7.1227709071710557                     7.5
   155   1      18.505500732126109      9.2596025254890364                     7.5
   156   1      19.739200556397112      11.396433630967515                     7.5
   157   1      20.972900380668118      13.533264736445993                     7.5
   158   1      22.206600241950124       15.67009590602941                     7.5
   159   1       23.44030062138609      17.806927973081951                     7.5
   160   1      24.674000445657096      19.943759078560433                     7.5
   161   1      25.907700306939098      22.080590248143849                     7.5
   162   1      27.141400131210105      24.217421353622324                     7.5
   163   1      28.375099955481112      26.354252459100806                     7.5
   164   1      29.608799816763117      28.491083628684223                     7.5
   165   1      30.842499641034124      30.627914734162701                     7.5
   166   1      32.076200575635049      32.764747762789312                     7.5
   167   1      33.309899326587129      34.901577009224596                     7.5
   168   1      34.543600261188061      37.038410037851207                     7.5
   169   1      35.777298975129142      39.175239220181552                     7.5
   170   1      37.010999946741066      41.312072312913102                     7.5
   171   1      38.244698660682161      43.448901495243447                     7.5
   172   1      39.478399595283079      45.585734523870059                     7.5
   173   1      40.712098346235166      47.722563770305349                     7.5
   174   1      41.945799280836091      49.859396798931954                     7.5
   175   1      43.179498031788171      51.996226045367237                     7.5
   176   1      44.413198966389103      54.133059073993849                     7.5
   177   1      45.646897680330184      56.269888256324194                     7.5
   178   1      46.880598614931117      58.406721284950805                     7.5
   179   1      48.114297365883203      60.543550531386096                     7.5
   180   1      49.347998300484122        62.6803835600127                     7.5
   181   1      16.038100775941452     0.71227707789611805                     7.5
   182   1      17.271800748256446      2.8491084397943474                     7.5
   183   1       18.50550072057144      4.9859398016925773                     7.5
   184   1      19.739200544842447      7.1227709071710557                     7.5
   185   1      20.972900665201433      9.2596025254890364                     7.5
   186   1      22.206600489472439      11.396433630967515                     7.5
   187   1      23.440300313743446      13.533264736445993                     7.5
   188   1      24.674000175025448       15.67009590602941                     7.5
   189   1      25.907700554461414      17.806927973081951                     7.5
   190   1      27.141400378732421      19.943759078560433                     7.5
   191   1      28.375100240014426      22.080590248143849                     7.5
   192   1      29.608800064285433      24.217421353622324                     7.5
   193   1      30.842499888556439      26.354252459100806                     7.5
   194   1      32.076199749838445      28.491083628684223                     7.5
   195   1      33.309899574109451      30.627914734162701                     7.5
   196   1      34.543600508710377      32.764747762789312                     7.5
   197   1      35.777299259662456      34.901577009224596                     7.5
   198   1      37.011000194263382      37.038410037851207                     7.5
   199   1      38.244698908204469      39.175239220181552                     7.5
   200   1      39.478399879816394      41.312072312913102                     7.5
   201   1      40.712098593757482      43.448901495243447                     7.5
   202   1      41.945799528358407      45.585734523870059                     7.5
   203   1      43.179498279310494      47.722563770305349                     7.5
   204   1      44.413199213911419      49.859396798931954                     7.5
   205   1      45.646897964863498      51.996226045367237                     7.5
   206   1      46.880598899464424      54.133059073993849                     7.5
   207   1      48.114297613405512      56.269888256324194                     7.5
   208   1      49.347998548006437      58.406721284950805                     7.5
   209   1      50.581697298958524      60.543550531386096                     7.5
   210   1      51.815398233559449        62.6803835600127                     7.5
   211   1       18.50550078303878     0.71227707789611805                     7.5
   212   1      19.739200755353774      2.8491084397943474                     7.5
   213   1      20.972900727668772      4.9859398016925773                     7.5
   214   1      22.206600551939779      7.1227709071710557                     7.5
   215   1      23.440300672298761      9.2596025254890364                     7.5
   216   1      24.674000496569768      11.396433630967515                     7.5
   217   1      25.907700320840775      13.533264736445993                     7.5
   218   1       27.14140018212278       15.67009590602941                     7.5
   219   1      28.375100561558746      17.806927973081951                     7.5
   220   1      29.608800385829753      19.943759078560433                     7.5
   221   1      30.842500247111758      22.080590248143849                     7.5
   222   1      32.076200071382758      24.217421353622324                     7.5
   223   1      33.309899895653771      26.354252459100806                     7.5
   224   1      34.543599756935777      28.491083628684223                     7.5
   225   1      35.777299581206776      30.627914734162701                     7.5
   226   1      37.011000515807709      32.764747762789312                     7.5
   227   1      38.244699266759788      34.901577009224596                     7.5
   228   1      39.478400201360714      37.038410037851207                     7.5
   229   1      40.712098915301802      39.175239220181552                     7.5
   230   1      41.945799886913726      41.312072312913102                     7.5
   231   1      43.179498600854814      43.448901495243447                     7.5
   232   1      44.413199535455732      45.585734523870059                     7.5
   233   1      45.646898286407819      47.722563770305349                     7.5
   234   1      46.880599221008751      49.859396798931954                     7.5
   235   1      48.114297971960831      51.996226045367237                     7.5
   236   1      49.347998906561756      54.133059073993849                     7.5
   237   1      50.581697620502844      56.269888256324194                     7.5
   238   1      51.815398555103769      58.406721284950805                     7.5
   239   1      53.049097306055856      60.543550531386096                     7.5
   240   1      54.282798240656781        62.6803835600127                     7.5
   241   1      20.972901826444154     0.71227707789611805                     7.5
   242   1      22.206601798759149      2.8491084397943474                     7.5
   243   1      23.440301771074147      4.9859398016925773                     7.5
   244   1      24.674001595345153      7.1227709071710557                     7.5
   245   1      25.907701715704135      9.2596025254890364                     7.5
   246   1      27.141401539975142      11.396433630967515                     7.5
   247   1      28.375101364246149      13.533264736445993                     7.5
   248   1      29.608801225528154       15.67009590602941                     7.5
   249   1       30.84250160496412      17.806927973081951                     7.5
   250   1      32.076201429235127      19.943759078560433                     7.5
   251   1      33.309901290517132      22.080590248143849                     7.5
   252   1      34.543601114788132      24.217421353622324                     7.5
   253   1      35.777300939059145      26.354252459100806                     7.5
   254   1      37.011000800341151      28.491083628684223                     7.5
   255   1       38.24470062461215      30.627914734162701                     7.5
   256   1      39.478401559213083      32.764747762789312                     7.5
   257   1      40.712100310165162      34.901577009224596                     7.5
   258   1      41.945801244766088      37.038410037851207                     7.5
   259   1      43.179499958707176      39.175239220181552                     7.5
   260   1        44.4132009303191      41.312072312913102                     7.5
   261   1      45.646899644260188      43.448901495243447                     7.5
   262   1      46.880600578861106      45.585734523870059                     7.5
   263   1      48.114299329813193      47.722563770305349                     7.5
   264   1      49.348000264414125      49.859396798931954                     7.5
   265   1      50.581699015366205      51.996226045367237                     7.5
   266   1       51.81539994996713      54.133059073993849                     7.5
   267   1      53.049098663908218      56.269888256324194                     7.5
   268   1      54.282799598509143      58.406721284950805                     7.5
   269   1       55.51649834946123      60.543550531386096                     7.5
   270   1      56.750199284062155        62.6803835600127                     7.5
   271   1      23.440301759519482     0.71227707789611805                     7.5
   272   1      24.674001731834476      2.8491084397943474                     7.5
   273   1      25.907701704149474      4.9859398016925773                     7.5
   274   1      27.141401528420481      7.1227709071710557                     7.5
   275   1      28.375101648779463      9.2596025254890364                     7.5
   276   1       29.60880147305047      11.396433630967515                     7.5
   277   1      30.842501297321476      13.533264736445993                     7.5
   278   1      32.076201158603482       15.67009590602941                     7.5
   279   1      33.309901538039448      17.806927973081951                     7.5
   280   1      34.543601362310454      19.943759078560433                     7.5
   281   1       35.77730122359246      22.080590248143849                     7.5
   282   1      37.011001047863459      24.217421353622324                     7.5
   283   1      38.244700872134473      26.354252459100806                     7.5
   284   1      39.478400733416478      28.491083628684223                     7.5
   285   1      40.712100557687478      30.627914734162701                     7.5
   286   1       41.94580149228841      32.764747762789312                     7.5
   287   1       43.17950024324049      34.901577009224596                     7.5
   288   1      44.413201177841415      37.038410037851207                     7.5
   289   1      45.646899891782503      39.175239220181552                     7.5
   290   1      46.880600863394427      41.312072312913102                     7.5
   291   1      48.114299577335515      43.448901495243447                     7.5
   292   1      49.348000511936434      45.585734523870059                     7.5
   293   1       50.58169926288852      47.722563770305349                     7.5
   294   1      51.815400197489453      49.859396798931954                     7.5
   295   1      53.049098948441532      51.996226045367237                     7.5
   296   1      54.282799883042458      54.133059073993849                     7.5
   297   1      55.516498596983546      56.269888256324194                     7.5
   298   1      56.750199531584471      58.406721284950805                     7.5
   299   1      57.983898282536558      60.543550531386096                     7.5
   300   1      59.217599217137483        62.6803835600127                     7.5
   301   1       25.90770176661681     0.71227707789611805                     7.5
   302   1      27.141401738931805      2.8491084397943474                     7.5
   303   1      28.375101711246803      4.9859398016925773                     7.5
   304   1      29.608801535517809      7.1227709071710557                     7.5
   305   1      30.842501655876795      9.2596025254890364                     7.5
   306   1      32.076201480147802      11.396433630967515                     7.5
   307   1      33.309901304418808      13.533264736445993                     7.5
   308   1      34.543601165700807       15.67009590602941                     7.5
   309   1       35.77730154513678      17.806927973081951                     7.5
   310   1      37.011001369407779      19.943759078560433                     7.5
   311   1      38.244701230689785      22.080590248143849                     7.5
   312   1      39.478401054960791      24.217421353622324                     7.5
   313   1      40.712100879231798      26.354252459100806                     7.5
   314   1      41.945800740513803      28.491083628684223                     7.5
   315   1       43.17950056478481      30.627914734162701                     7.5
   316   1      44.413201499385735      32.764747762789312                     7.5
   317   1      45.646900250337822      34.901577009224596                     7.5
   318   1       46.88060118493874      37.038410037851207                     7.5
   319   1      48.114299898879835      39.175239220181552                     7.5
   320   1      49.348000870491759      41.312072312913102                     7.5
   321   1       50.58169958443284      43.448901495243447                     7.5
   322   1      51.815400519033766      45.585734523870059                     7.5
   323   1      53.049099269985852      47.722563770305349                     7.5
   324   1      54.282800204586778      49.859396798931954                     7.5
   325   1      55.516498955538864      51.996226045367237                     7.5
   326   1      56.750199890139783      54.133059073993849                     7.5
   327   1      57.983898604080878      56.269888256324194                     7.5
   328   1      59.217599538681796      58.406721284950805                     7.5
   329   1      60.451298289633883      60.543550531386096                     7.5
   330   1      61.684999224234815        62.6803835600127                     7.5
   331   1      28.375101699692134     0.71227707789611805                     7.5
   332   1      29.608801672007129      2.8491084397943474                     7.5
   333   1      30.842501644322127      4.9859398016925773                     7.5
   334   1      32.076201468593133      7.1227709071710557                     7.5
   335   1      33.309901588952116      9.2596025254890364                     7.5
   336   1      34.543601413223122      11.396433630967515                     7.5
   337   1      35.777301237494129      13.533264736445993                     7.5
   338   1      37.011001098776134       15.67009590602941                     7.5
   339   1        38.2447014782121      17.806927973081951                     7.5
   340   1      39.478401302483107      19.943759078560433                     7.5
   341   1      40.712101163765112      22.080590248143849                     7.5
   342   1      41.945800988036112      24.217421353622324                     7.5
   343   1      43.179500812307126      26.354252459100806                     7.5
   344   1      44.413200673589131      28.491083628684223                     7.5
   345   1       45.64690049786013      30.627914734162701                     7.5
   346   1      46.880601432461063      32.764747762789312                     7.5
   347   1      48.114300183413143      34.901577009224596                     7.5
   348   1      49.348001118014068      37.038410037851207                     7.5
   349   1      50.581699831955156      39.175239220181552                     7.5
   350   1       51.81540080356708      41.312072312913102                     7.5
   351   1      53.049099517508168      43.448901495243447                     7.5
   352   1      54.282800452109086      45.585734523870059                     7.5
   353   1      55.516499203061173      47.722563770305349                     7.5
   354   1      56.750200137662105      49.859396798931954                     7.5
   355   1      57.983898888614185      51.996226045367237                     7.5
   356   1       59.21759982321511      54.133059073993849                     7.5
   357   1      60.451298537156198      56.269888256324194                     7.5
   358   1      61.684999471757124      58.406721284950805                     7.5